# vtk DataFile Version 4.0
sinus_skin_decimated
ASCII
DATASET POLYDATA
POINTS 36077 float
76.25 46.8775 0 76.875 47.5025 0 75.625 47.5025 0.7 
78.75 46.8775 0 79.375 47.5025 0.7 78.125 47.5025 0 
70.625 48.1275 0 70.625 48.1275 5.6 70 48.1275 0 
86.25 48.1275 0 86.25 48.1275 0.7 85 48.1275 0 
86.875 48.7525 0 87.5 48.7525 0 69.375 48.7525 0 
69.375 48.7525 7 68.75 48.7525 0 67.5 50.0025 0 
67.5 49.3775 0.7 66.875 50.0025 0 67.5 50.0025 1.4 
88.75 50.0025 0 88.75 49.3775 0.7 88.125 49.3775 0 
89.375 50.0025 0 90 50.6275 0.7 90 50.6275 0 
65.625 51.2525 0 65.625 50.6275 0.7 65 51.2525 0 
90.625 50.6275 0 64.375 51.8775 0 64.375 51.8775 10.5 
63.75 51.8775 0 93.125 52.5025 0.7 91.875 51.2525 0 
93.125 52.5025 0 93.75 52.5025 0 62.5 53.1275 0.7 
61.875 53.7525 0.7 61.875 53.7525 0 61.25 53.7525 0 
60 55.0025 0 60.625 54.3775 3.5 96.875 55.0025 0.7 
95.625 53.7525 0 97.5 55.6275 0 98.125 55.6275 0 
57.5 56.8775 0 59.375 55.0025 0 58.75 55.0025 2.8 
100.625 58.1275 0 101.25 58.1275 0 55.625 58.1275 0 
55.625 57.5025 0.7 55 58.1275 0 56.875 56.8775 0 
56.25 57.5025 0.7 51.25 59.3775 7 52.5 60.0025 0 
53.125 60.0025 0 103.125 60.0025 0 103.75 60.0025 0 
106.875 61.2525 3.5 106.25 62.5025 0 44.375 68.1274 0 
51.25 61.2525 0.7 50.625 61.2525 0.7 106.875 62.5025 0 
108.75 64.3774 0.7 111.875 67.5024 0 45 66.2524 2.8 
109.375 64.3774 0.7 43.75 68.1274 0.7 43.75 68.1274 0 
113.123 68.125 0 113.125 68.7524 0 113.75 68.7524 0.7 
113.75 68.7524 0 36.875 75.0024 0 116.248 71.25 0 
41.25 70.0024 0.7 41.875 70.0024 0.7 116.248 71.875 0 
118.75 71.8774 2.8 117.5 73.1274 0 118.125 73.1274 0 
37.5 71.8774 2.8 36.25 75.0024 0 121.248 76.25 0 
121.25 76.8774 0 121.875 76.8774 0.7 33.75 76.8774 0.7 
33.1275 77.5 0.7 34.375 76.8774 0.7 121.875 76.8774 0 
122.498 77.5 0 33.1275 78.125 0.7 122.498 78.125 0 
123.123 75.625 3.5 31.8775 79.375 0.7 31.8775 79.375 0 
31.8775 80 0 28.7525 83.125 0 127.498 83.125 0 
124.998 80 1.4 126.873 81.875 0.7 126.873 82.5 0.7 
28.7525 83.75 0 26.2525 86.25 0 127.498 83.75 0 
128.748 83.125 2.8 129.373 85 1.4 130.623 86.875 0 
129.998 85.625 0.7 129.998 86.25 0.7 130.623 87.5 0 
131.873 88.75 0 25.0025 88.75 0 25.0025 88.125 0 
23.1275 88.75 2.8 133.123 87.5 3.5 131.873 89.375 0 
23.7525 90 0 133.123 90.625 0 23.7525 90.625 0 
133.123 91.25 0 23.1275 91.25 0 21.8775 92.5 0.7 
23.1275 91.875 0 22.5025 92.5 0 133.748 92.5 0 
134.998 93.75 0 133.748 91.875 0 22.5025 93.125 0 
21.8775 93.75 0 134.998 91.25 2.8 134.998 90.625 4.9 
21.8775 94.375 0 21.2525 95 0.7 134.998 94.375 0 
21.2525 95 0 135.623 95 0 21.2525 95.625 0 
20.6275 95 2.1 20.6275 96.25 0 20.0025 94.375 2.8 
135.623 96.25 0 136.248 96.875 0 136.248 93.75 4.2 
20.6275 97.5 0 136.248 97.5 0 20.0025 98.125 0 
20.0025 96.875 2.1 136.873 98.125 0 136.873 92.5 5.6 
19.3775 98.75 0.7 136.873 99.375 0 136.873 98.75 0.7 
137.498 100 0 20.0025 100 0 19.3775 100.625 0 
138.123 102.5 0 138.123 104.375 0 138.748 103.75 0.7 
138.748 105 1.4 138.748 105 0 18.7525 107.5 0 
18.7525 103.125 0 18.1275 105.625 0.7 138.748 110.625 0 
138.748 106.875 0.7 139.373 107.5 0.7 18.1275 108.125 0 
18.1275 114.375 0 139.373 111.25 0 18.7525 117.5 0.7 
18.7525 115 0 18.7525 119.375 0 138.748 115.625 0 
138.748 120 0 139.373 118.125 1.4 18.7525 119.375 1.4 
19.3775 120 0 138.123 120.625 0 138.748 120 1.4 
19.3775 121.875 0 20.0025 124.375 0 20.0025 122.5 0 
138.123 123.125 0 75 124.373 0 77.5 123.748 0.7 
76.875 123.748 0 81.25 123.748 0 137.498 123.75 0 
76.25 124.373 0 78.125 124.998 1.4 81.875 124.373 0 
82.5 124.373 0 83.125 124.373 0.7 20.0025 125.625 0.7 
20.6275 125 0 74.375 124.998 0 71.25 124.998 0 
73.75 124.373 1.4 83.125 124.998 0 83.75 124.998 1.4 
83.75 124.998 0 67.5 125.623 0 66.875 125.623 0.7 
71.25 125.623 2.1 70.625 125.623 0 84.375 125.623 0 
85 125.623 0 66.875 126.248 0 65.6226 126.25 0 
86.25 126.248 1.4 85.625 126.248 0 89.375 126.248 1.4 
91.875 126.248 0 65.6226 126.875 0 65.625 126.248 2.1 
93.1274 126.875 0 92.5 126.873 0 137.498 126.25 0 
136.873 126.875 0 137.498 126.25 1.4 21.2525 127.5 0 
20.6275 126.875 0 20.6275 128.75 1.4 64.9976 127.5 0 
64.9976 128.125 0 65.625 130.002 0.7 93.1274 127.5 0 
93.7524 128.125 1.4 93.7524 128.125 0 137.498 128.125 0.7 
136.873 128.125 0 65.6226 128.75 0 136.873 128.75 0.7 
21.2525 130 2.1 21.8775 129.375 0 21.2525 128.75 0 
65.6226 130 0 93.7524 130 0 93.1274 130 0.7 
21.8775 131.875 0 66.25 130.002 0 66.875 130.627 0 
67.5 130.627 0.7 93.1274 130.625 0 93.1274 131.25 0 
69.375 130.627 0 70 131.252 0 70 130.627 0.7 
70.625 131.252 1.4 136.873 133.75 0 71.25 131.252 0 
91.875 131.877 0 92.5 131.252 0 91.875 131.877 0.7 
21.8775 133.125 0.7 22.5025 132.5 0 74.375 131.877 0 
76.25 131.877 1.4 71.875 131.877 0 75 132.502 0 
91.25 131.877 0 136.873 131.875 1.4 82.5 132.502 0 
83.125 133.127 0 83.75 132.502 0.7 84.375 131.877 5.6 
84.375 133.127 1.4 89.375 133.752 0.7 89.375 133.752 0 
86.875 133.127 0 87.5 133.752 0 137.498 134.375 2.1 
137.498 134.375 0 137.498 136.875 0 22.5025 138.75 1.4 
22.5025 145 0 138.123 137.5 0 138.123 138.75 0 
138.123 138.75 0.7 22.5025 140 2.8 138.748 139.375 0 
21.8775 145 0.7 21.8775 145.625 0 139.373 142.5 0 
139.373 148.75 0 139.373 148.75 0.7 138.748 149.375 0 
138.748 149.375 0.7 138.748 151.25 1.4 138.748 153.75 0 
138.123 154.375 0 138.123 155.625 0 137.498 156.25 0 
138.123 156.25 0.7 137.498 157.5 0 136.873 158.125 0 
136.873 158.75 0 136.248 159.375 0.7 73.125 46.8775 0 
73.125 46.8775 2.8 72.5 47.5025 0 74.375 47.5025 2.1 
82.5 46.8775 2.1 82.5 46.8775 0 83.125 47.5025 0 
83.125 47.5025 2.1 71.25 47.5025 0 84.375 47.5025 0 
85 47.5025 2.8 86.25 48.7525 1.4 88.75 49.3775 8.4 
90 50.0025 1.4 65.625 51.2525 2.1 91.25 51.2525 0 
91.25 50.6275 2.1 92.5 51.8775 4.2 93.125 51.8775 1.4 
61.875 53.1275 1.4 95 53.7525 0 95 53.1275 4.2 
96.875 54.3775 1.4 98.75 56.2525 1.4 56.25 56.8775 1.4 
103.75 60.0025 1.4 102.5 58.7525 2.1 110 64.3774 2.1 
111.25 66.2524 1.4 111.875 66.2524 1.4 112.5 67.5024 0 
41.875 68.1274 2.8 114.375 68.7524 2.1 40.6275 70.625 1.4 
39.375 71.2524 1.4 29.3775 76.875 7 28.75 76.8774 7 
125.625 80.0024 1.4 126.248 80.625 1.4 126.248 81.25 1.4 
26.2525 83.125 4.2 26.2525 86.875 0 133.748 91.25 1.4 
21.2525 93.125 1.4 136.248 91.25 5.6 136.873 93.125 6.3 
137.498 98.125 1.4 18.1275 100 2.8 137.498 100 1.4 
137.498 101.875 0 138.123 99.375 2.1 19.3775 102.5 0 
18.7525 103.125 1.4 17.5025 109.375 1.4 18.1275 113.125 1.4 
139.373 115 0 17.5025 116.875 2.1 139.998 116.25 2.1 
139.373 120 2.1 18.7525 123.75 4.2 138.748 123.75 2.1 
20.0025 125.625 2.1 66.25 126.248 2.8 20.6275 127.5 2.1 
93.7524 129.375 2.1 21.8775 131.875 1.4 90.625 131.877 1.4 
137.498 130.625 1.4 72.5 131.252 1.4 73.125 131.877 2.1 
81.875 132.502 3.5 21.8775 135.625 3.5 85.625 133.127 3.5 
22.5025 134.375 1.4 21.8775 135 1.4 21.8775 135.625 1.4 
138.123 135 2.1 138.748 140.625 2.8 139.373 141.25 2.1 
138.748 141.875 0 22.5025 145 1.4 21.8775 148.125 0 
21.2525 148.75 0 21.2525 148.75 2.1 139.373 150.625 2.1 
138.748 150 1.4 21.2525 151.875 0 139.373 150.625 1.4 
20.6275 151.875 2.1 20.0025 155.625 4.2 20.6275 152.5 0 
20.6275 159.375 1.4 20.6275 158.75 0 21.2525 159.375 0.7 
136.873 159.375 1.4 86.25 48.1275 2.1 67.5 49.3775 8.4 
94.375 53.1275 2.8 96.25 54.3775 2.1 60.625 53.7525 4.2 
98.125 55.0025 2.1 57.5 56.2525 3.5 56.875 56.2525 2.1 
103.125 58.7525 2.1 113.125 67.5024 2.1 113.75 67.5024 2.1 
115 68.7524 2.1 116.25 70.0024 2.8 38.125 71.2524 3.5 
126.248 80.625 2.1 129.998 84.375 2.1 20.6275 91.25 4.2 
19.3775 96.875 3.5 137.498 97.5 3.5 139.373 100 4.9 
138.748 101.25 2.1 18.1275 103.125 2.8 139.373 103.125 2.8 
139.998 105.625 3.5 17.5025 105.625 3.5 139.373 116.875 2.1 
18.1275 117.5 2.1 138.748 122.5 2.8 73.125 124.373 3.5 
74.375 124.373 4.2 77.5 124.998 2.8 85 124.373 3.5 
138.123 124.375 2.1 88.75 126.248 2.8 89.375 125.623 2.1 
91.25 125.623 2.1 20.6275 128.125 2.1 138.123 126.875 2.1 
65.6226 128.75 2.8 70.625 130.627 2.1 137.498 131.25 3.5 
21.2525 132.5 2.1 21.8775 133.125 2.8 88.75 133.752 3.5 
21.8775 138.75 2.1 139.998 145.625 8.4 22.5025 144.375 2.1 
21.8775 145 2.1 21.8775 148.75 2.8 138.748 156.25 5.6 
136.873 159.375 4.9 80.625 46.8775 2.8 83.125 46.8775 2.8 
83.75 47.5025 3.5 73.75 47.5025 3.5 77.5 47.5025 4.9 
88.125 49.3775 4.9 90.625 50.6275 7 101.25 57.5025 3.5 
101.875 57.5025 3.5 114.373 68.125 2.8 41.25 69.3774 2.8 
116.875 70.0024 2.8 127.498 76.25 9.1 128.123 81.875 3.5 
128.748 82.5 2.8 22.5025 88.125 4.9 133.748 90 2.8 
134.373 90.625 2.1 134.373 90.625 2.8 16.8775 101.25 5.6 
138.748 100.625 4.2 17.5025 103.75 2.8 139.998 110.625 2.8 
139.998 115.625 3.5 139.998 118.125 2.8 139.373 118.75 2.8 
18.1275 121.25 2.8 139.373 123.125 3.5 76.25 124.373 2.8 
18.7525 125 3.5 78.125 126.248 3.5 89.375 125.623 2.8 
90.625 125.623 3.5 87.5 126.248 2.8 90.625 126.248 2.8 
93.125 124.373 6.3 93.1274 126.25 3.5 93.7524 126.875 2.8 
137.498 128.75 2.8 93.7524 128.75 2.8 68.125 127.5 5.60275 
89.3774 131.875 7 77.5 132.502 2.8 81.25 132.502 4.2 
85 132.502 2.8 137.498 134.375 2.8 88.125 133.752 3.5 
138.123 133.75 5.6 21.8775 139.375 4.2 22.5025 144.375 4.2 
21.8775 145 4.2 21.8775 148.75 3.5 20.6275 151.25 6.3 
138.748 152.5 4.2 80.625 47.5025 3.5 72.5 47.5025 4.9 
85 48.1275 3.5 85.625 48.1275 4.9 62.5 53.1275 4.2 
98.75 55.0025 7 101.25 56.8775 4.2 54.375 58.1275 4.2 
106.25 60.6275 6.3 50 61.2525 4.2 48.125 62.5025 6.3 
108.75 63.1275 4.2 44.375 65.6274 4.9 42.5 67.5024 4.2 
36.875 72.5024 3.5 118.75 71.8774 3.5 36.25 72.5024 3.5 
128.123 80.625 4.2 24.3775 85.625 3.5 23.1275 88.125 2.8 
133.123 83.75 8.4 133.123 86.875 5.6 21.2525 90.625 4.9 
134.373 85.625 8.4 134.373 90.625 3.5 19.3775 90.625 7.7 
138.123 96.875 4.2 16.8775 106.25 3.5 140.623 108.125 4.2 
139.998 110 3.5 140.623 110.625 3.5 139.998 111.25 3.5 
16.8775 115 3.5 140.623 111.875 3.5 140.623 113.75 3.5 
139.998 114.375 3.5 140.623 115 3.5 17.5025 115.625 3.5 
16.8775 117.5 4.2 18.1275 120 3.5 139.998 119.375 4.9 
139.998 120 3.5 139.373 120.625 3.5 18.1275 122.5 3.5 
[...]
POINT_DATA 36077
SCALARS Gauss%20Curvature double
LOOKUP_TABLE default
16.6324 13.1945 1.17082 11.5032 1.75009 19.7051 42.612 1.13077 8.94368 
17.8874 0.357691 21.4828 21.4828 17.8874 42.612 1.13078 8.94368 45.8909 
0.755511 11.2866 1.69176 46.1904 0.485166 14.9038 17.8874 1.69181 21.4828 
45.8909 0.755511 11.2866 17.8874 42.612 0.485266 8.94408 1.69181 17.8874 
21.4828 17.8874 -0.798153 1.08324 42.603 8.94408 45.7453 1.08327 1.69181 
17.8874 46.1904 17.8874 45.7453 11.2872 0.357767 46.8298 17.884 45.7453 
0.401707 11.2872 11.2872 1.61977 0.357767 11.2872 45.7453 46.8298 17.884 
0.484721 46.8298 45.6205 1.61977 0.401707 17.884 1.93818 46.6896 1.5501 
0.484773 -1.35082 11.2866 11.2832 46.6896 -0.603013 17.8832 45.6205 11.2832 
0.401749 1.55006 45.1848 -0.659295 46.6896 17.8832 -0.560895 11.2866 11.2832 
46.6896 -0.603013 0.401749 0.485166 1.55006 17.8832 11.2832 1.69181 45.1848 
-0.592121 -0.850797 17.8874 46.1931 10.8608 11.2832 1.30062 0.40184 1.30067 
46.1931 10.8608 45.1848 1.30062 5.20939 11.2832 0.40184 1.30067 45.1848 
10.8384 46.1931 10.8608 -0.860522 0.40184 45.1848 10.8608 10.8384 46.1931 
45.1848 1530.56 0.431956 9387.19 1530.56 4974.72 10.8384 22.1468 9387.19 
10.8608 0.40184 5.20955 46.1931 1.7516 45.1848 10.8608 10.8384 46.1931 
1.74774 10.8608 0.43196 45.1848 10.8384 1.32752 9387.19 45.1848 10.8608 
1.74774 10.8384 0.40184 0.431956 45.1848 1.32446 10.8384 9512.62 10.8603 
10.8398 5037.2 0.518312 1.29494 10.8398 9512.62 10.8603 0.431897 5037.2 
1.29866 0.518312 10.8603 8.52231 10.8398 1.15435 4766.65 8.52231 10053.8 
8.5307 -0.493292 1.15155 4766.65 10053.8 0.865121 8.52231 8.52231 4766.65 
8.5307 13.4354 0.884961 13.4354 9926.5 10053.8 10.6977 0.384189 8.5309 
20.1726 1.30067 0.450434 4766.65 10.6977 45.1848 0.869678 10.7138 0.40184 
20.1726 13.4354 0.86971 0.422741 10.8384 10.7138 20.1726 10.6977 42.8703 
0.40184 10.7138 -0.829066 20.1726 8.53248 1.30062 42.658 10.7138 8.5307 
10053.8 0.865121 46.5447 8.52231 0.450433 9622.11 4821.41 1.30115 8.94158 
-0.986265 42.658 0.384143 39.7975 10.8425 0.867601 1.15148 4766.65 8.52231 
21.4351 46.6896 0.484773 8.52231 10.8575 45.4425 1.32384 10.8597 46.6896 
10.8575 45.4425 0.485437 1.3011 45.7913 10.8575 42.658 11.2832 0.869497 
0.450434 4766.65 10.8575 0.485437 45.4425 9926.5 8.94158 1.29494 10.8575 
9926.5 0.998408 0.485438 1.3011 0.869497 42.658 17.8832 21.4886 -0.814761 
10.8398 45.7913 -0.878232 46.8326 10.8398 21.4454 1.59627 1.15148 11.2805 
0.754842 10.8603 10.8398 12.636 -0.385408 42.8907 1.0673 -0.814553 8.5307 
46.0341 8.5307 46.0341 0.422361 12.636 42.8907 12.636 5401.79 8.94368 
11.1262 42.612 -0.877375 -0.385492 17.8874 21.4828 1.69176 8.94368 17.8874 
0.755512 3.37992 -0.6511 0.485166 1.13077 21.4828 0.485166 1.69185 0.485166 
0.357767 46.1904 -0.594599 0.485166 1.69176 0.401707 2.01112 2.01111 0.484773 
1.9377 0.484773 17.8832 0.40175 1.93769 0.0505906 0.401749 6.833 0.40175 
0.484773 0.40184 1.30062 -0.000141062 46.1931 5.20939 0.431956 0.40184 -0.000131437 
0.518371 0.43196 1.29494 5037.2 0.518377 9512.62 1.72129 0.431897 1.15155 
8.5307 0.450438 0.384147 -0.493297 1.15696 0.384147 1.15148 -0.472717 1.15148 
1.93769 1.15155 0.357901 0.384143 0.485437 5.2085 -1.06172 -0.878277 1.3011 
3.44104 0.431897 0.450433 0.987069 5.79736 0.401469 45.7913 4.01976 21.4873 
17.884 0.357368 -0.385408 2.58793 46.8326 1.3755 0.48472 0.431902 10.8603 
8.49383 8.94199 9850.2 8.48021 0.485166 0.485166 1.69176 1.69176 0.357768 
0.485166 1.08327 0.357768 0.484721 1.93769 0.484773 0.484773 1.93769 -0.93567 
-0.800924 0.987651 0.997843 1.74792 1.32123 0.518366 0.518317 1.72118 0.518317 
-0.414617 1.72138 0.865059 1.15148 0.865059 0.869678 -0.829066 -0.000145026 1.30062 
0.865059 0.869437 7.82557 2.62364 -0.878188 0.384147 7.16364 0.485438 0.865177 
0.860257 3.76417 2.62383 0.450438 0.86899 -1.02389 0.48472 1.34492 0.422361 
5400.97 0.485166 0.485166 1.69176 1.69176 -0.877374 1.69176 -0.798071 2.01113 
0.484721 -0.800924 1.5501 0.484773 -0.923687 1.30062 0.40184 1.74793 1.30062 
0.987651 -1.15659 0.431902 1.30212 0.431902 -1.06172 0.865177 0.384147 0.865059 
0.450438 0.384147 0.869676 0.450438 0.432226 -0.653144 -1.06172 0.518377 1.37614 
7.81823 0.484773 1.93771 0.865059 -0.986264 1.23317 0.484774 1.32046 -2.58167 
0.485437 5.79736 1.32062 1.29503 -0.881834 -3.99804 0.357368 2.01258 0.48472 
2.92695 3.37992 1.13078 3.37992 1.69176 1.08321 0.357691 0.484721 1.08321 
2.01209 -0.798153 1.08321 2.01204 1.5501 6.40774 6.39398 1.93771 -0.776271 
0.40184 0.485165 0.43196 0.401839 1.30062 1.69316 0.401839 1.30062 0.43196 
0.518378 0.431902 0.518319 1.29503 0.798223 2.5881 0.450438 0.518317 0.384147 
2.5881 0.798223 1.15162 0.450439 1.15162 0.865182 0.384147 0.865177 0.450438 
0.869437 0.485437 1.30062 1.15188 1.93662 -0.653144 2.64003 1.64275 0.450439 
-0.901152 0.384147 0.384147 1.3011 5.22133 -0.653145 0.432226 1.15162 1.29503 
0.518317 1.30212 0.518317 0.450438 0.422361 -0.461829 -0.000102805 -0.385492 0.485166 
-0.650967 0.357768 -0.783752 1.61981 0.484721 1.93771 1.67619 0.484773 -0.935649 
-0.779549 -0.935649 0.484773 7.16556 0.484773 1.30071 -0.800922 -0.81337 6.84729 
-0.813533 0.401839 1.74793 0.43196 0.43196 1.35516 0.431902 -0.414616 1.15162 
0.384139 0.450439 0.384147 0.869906 0.450429 0.384147 0.865182 0.40184 -0.493249 
0.986621 -0.645862 -0.798829 1.3011 2.65257 1.37615 1.15692 1.3269 0.450439 
1.15696 -2.27605e-05 3.45718 0.431902 0.48472 -0.385408 0.450439 8.48019 0.431952 
1.69176 0.357691 0.485166 0.357691 0.357691 0.755512 1.69176 0.357766 0.357691 
0.485165 0.357691 0.485263 -0.623756 1.69176 1.62001 -0.650968 0.357768 2.01113 
1.61981 2.01113 6.39398 0.431953 -0.443594 5.20955 1.30062 0.431951 1.75545 
1.72977 1.29503 1.72138 0.518306 1.30247 -0.663272 0.450429 2.5881 1.15162 
1.15162 0.450429 0.384139 0.882811 7.81947 0.86974 1.30062 1.15723 0.384193 
-0.663159 0.518377 0.384193 0.865177 2180.31 1.3012 1.15188 2.60017 -0.900785 
-0.385748 0.998401 5.22195 -0.829052 9628.08 0.450438 0.869525 0.450429 -0.828502 
-0.783831 -1.02422 46.269 0.450487 1.74638 0.450487 0.485166 1.13078 -0.623641 
0.484721 0.484728 0.357767 0.484722 1.61981 0.401708 0.401707 0.518126 -0.0175627 
-0.776271 -0.278454 0.431954 -0.925258 0.431951 0.40184 0.43196 0.987651 0.518318 
0.518318 -0.882168 0.518317 0.384147 -0.493288 0.798223 0.865177 0.450438 0.865183 
1.15162 0.384193 0.882811 -3.90503 1.32123 0.401291 0.519471 0.518377 1.93771 
2.69016 0.883086 0.869528 1.2331 -0.575057 1.93753 0.869906 0.485438 -0.653144 
-0.829066 1.3012 0.450429 -0.814553 -1.02389 2.01353 0.450488 -0.414314 0.431961 
0.357691 0.450478 3.4905 1.69186 0.35769 0.485166 1.13077 1.62062 1.13078 
-0.594164 2.01209 0.484721 1.64125 0.431944 0.40184 -0.454649 1.30062 0.43196 
1.30072 5.27611 1.74793 1.74828 1.75509 1.74793 1.35388 0.431892 0.431901 
0.431902 1.15162 0.384146 0.450439 0.870143 1.15723 -0.0136286 0.882601 -0.902141 
0.384193 -1.82292 0.518377 0.798382 0.882811 0.798382 0.384193 5.20881 1.93662 
1.93771 -0.812335 -0.986265 0.450429 1.23318 -1.79971e-07 0.432217 -0.618594 10.4195 
-0.828622 1.37614 -0.653144 -0.882011 0.861263 2.62383 1.34803 0.357368 0.42236 
2.91986 -0.385408 1.06761 8.49383 -0.812828 0.485166 1.69176 1.13078 -0.650969 
-1.311 1.08327 0.484722 0.401706 0.518114 -0.925254 -1.46596 0.40184 -0.800881 
-0.454435 0.987587 0.401834 0.401834 0.43196 1.75545 0.518319 0.450429 0.384139 
0.450429 0.450437 0.882811 0.450439 -0.663304 0.384193 -0.605208 9.88938 1.32123 
-1.13433 0.384139 2.69016 0.626474 0.485437 -0.778336 -1.14346 0.518367 1.41912 
-0.994854 1.3011 0.485437 2.31648 1.15162 1.15696 0.357368 1.34493 2.01731 
0.422361 0.450488 -1.25163 0.431961 1.69176 0.357686 0.48526 1.13078 1.08321 
1.08327 2.01205 1.72023 1.61973 0.518125 0.43196 -0.923453 -0.88199 0.431913 
0.431952 1.30212 0.518307 1.30212 0.798224 0.869906 -0.877711 0.384139 0.45044 
1.15135 0.865413 7.78724 -0.901152 -1.31368 0.518376 -5.37748 0.412129 0.798381 
1.32062 0.484772 1.93771 3.61776 9.86227 -1.7095 -2.96181 -3.71888 0.987638 
1.23317 2.25987 1.2331 -0.615018 0.450399 2.68018 1.6802 1.37735 -0.41814 
0.519838 7.8183 0.869426 1.3269 -0.436487 -0.14458 -0.385748 -0.972393 0.357901 
0.450429 0.864946 1.29468 -0.881833 0.518307 0.48472 0.869002 1.06696 2.01353 
1.06696 5401.05 0.450479 1.16858 -0.645292 1.69175 6.46664 1.13078 1.69209 
0.357691 0.357691 1.13078 1.69208 2.01109 0.357768 2.01109 7.46656 0.357767 
1.74788 1.66965 0.518115 0.997431 1.64203 -0.770425 8.91906 1.74828 1.78584 
1.78581 0.98765 1.32092 -0.414616 0.431902 -0.0181125 1.72099 1.33254 0.431894 
1.72101 -0.493288 0.384139 0.450436 9.89485 -1.30009 1.32155 0.384193 7.81823 
0.384139 1.17986 10670.2 5347.42 10670.2 -0.291981 0.518322 -0.948135 0.864946 
-0.511211 0.626478 1.23318 1.23318 2.69055 0.626474 2.68977 1.23318 0.466011 
-0.511211 1.52546 0.432217 -2.05262 0.55073 0.384193 0.384193 0.626478 1.32093 
0.432217 1.30063 1.32092 0.384185 7.16633 0.754913 -0.986263 0.384139 7.85172 
-0.784933 0.798366 0.518307 1.15135 1.29468 0.518057 0.431961 1.75391 1.69209 
0.485166 1.69176 0.485166 1.69175 0.485164 0.357691 1.69176 1.13077 1.62001 
0.357686 1.13099 1.62062 1.13077 1.62062 0.48472 0.484724 1.08321 0.357767 
0.431902 0.518064 1.67654 0.431906 0.431913 -0.454657 1.30063 5.22276 5.22276 
0.98765 1.29539 0.431902 0.518317 0.431902 0.450438 1.15137 1.15671 0.450438 
2.6394 3.28117 0.88302 1.93766 14.3802 -0.614574 4.98595 0.432226 1.32722 
7.16481 0.432226 -0.94441 -0.827908 -0.824262 -0.414616 1.32155 1.09586e-13 0.987588 
10.9964 1.30062 0.384146 -0.01301 -1.22103 1.3012 2.60017 -0.385748 -0.663427 
-0.882012 0.450436 0.518317 0.450439 -1.08781 1.15188 0.450437 -0.385409 0.484721 
-1.06707 0.422361 1.76359 1.06761 0.958591 1.75506 0.431961 0.518057 -0.651101 
0.40162 1.55023 1.13099 1.13077 1.13077 0.357686 0.357767 2.01209 1.08321 
0.431902 1.76203 0.518064 0.518064 -0.800794 0.98765 -0.454649 1.30094 0.518377 
1.76286 1.33254 0.450439 0.384146 -0.0182257 7.85559 1.29531 -0.461569 10.4371 
1.17932 0.797869 1.3012 -0.859257 0.384146 -0.653272 0.401834 2.6532 0.40184 
0.518377 0.432226 5.27612 -1.56367 0.998343 1.3012 -1.04574 0.485438 2.663 
0.518318 8.39866 1.37551 1.07001 46.3536 8.4802 0.431952 2.16116 1.78425 
0.431914 0.485164 1.69122 1.13099 0.48526 2.01578 1.08286 2.01578 1.76127 
1.78454 0.431856 1.78383 -1.40424 0.431893 0.518012 0.987588 1.23397 5.27612 
-0.800794 0.51837 0.431913 0.431913 1.35388 0.431951 0.401834 0.431951 1.33254 
0.518315 1.33254 0.798214 0.890212 0.450399 0.889751 -0.0113091 0.384106 2.65694 
1.35389 0.904608 -0.899318 1.94128 0.890233 1.30094 0.384152 7.95155 0.987588 
0.0340744 -1.57903 0.485435 3.87984 1.30141 0.450399 2.70646 0.450436 1.33254 
0.518315 1.17986 -0.89715 5.87276 11.1181 2.9574 -1.08832 -0.385409 0.422361 
0.450436 5409.47 2.16265 1.78428 1.54949 -0.792379 0.485164 0.485163 0.48526 
0.484724 7.54992 1.76127 0.450448 1.78383 0.431856 1.70496 0.518073 1.23314 
-0.923453 0.518326 -6.87418e-06 1.78584 0.431913 0.431913 1.78584 0.518271 1.76205 
1.76286 0.518271 0.797708 1.17934 -0.896758 -0.49325 0.384106 0.890233 -0.414271 
1.17986 10.5811 10.5843 0.450399 1.35389 0.432179 -0.679861 1.35389 -0.679861 
0.518326 0.422739 -0.869892 0.384106 -0.986266 -0.798836 1.30141 3.87984 10.6679 
7.2484 -0.35102 1.17986 0.755876 -0.385748 0.384106 0.518271 -0.0113086 1.17986 
1.17986 0.450399 0.357363 -1.02422 0.357362 0 -0.683629 1.33254 0.798148 
2.663 1.37541 1.06996 0.431855 8.49382 0.466505 0.466505 4.31747 0.627115 
1.23397 2.24963 1.68147 0.466505 -1.13109 -0.511635 1.5055 0.51994 2.24963 
0.550799 -0.511635 0.550799 -0.511635 0.51994 0.958452 0.51994 1.08612 0.550799 
0.51994 -0.778908 2.24968 0.51994 0.627007 2.24968 -0.511714 4.41902 1.50553 
-0.438085 0.550799 2.24968 1.50553 2.16344 4.49433 0.401743 3.38065 0.357686 
1.13099 -1.0282 0.48526 0.357686 0.357686 0.357686 1.08286 1.08286 -1.19314 
0.518012 0.431856 1.68322 0.51994 0.485162 1.35388 1.78584 -0.454864 0.431913 
0.431914 0.401834 0.431856 -0.679809 0.431855 0.431856 -0.414271 -0.414574 1.17879 
0.450399 0.384106 1.17934 0.905035 9.73232 0.450399 2.22708 -3.70394 1.76998 
-0.414574 0.869878 0.905035 0.484775 0.357403 0.890232 -0.986572 1.30141 2.60085 
0.755876 2.6572 0.890233 0.450399 1.17932 0.357363 -0.814553 3.80677 -0.385152 
-0.385408 8.51503 1.37541 -0.814554 0.422363 0.466505 0.431913 0.627115 0.466505 
1.44446 0.51994 0.550799 0.51994 0.51994 2.24884 0.51994 1.50497 0.520028 
0.987277 -0.859476 0.998006 0.450505 0.383961 0.51994 0.431979 0.550799 3.40687 
2.24888 1.78428 1.54949 -0.791442 0.401614 1.69208 0.357686 1.13098 1.13098 
1.08287 2.01578 0.450448 1.76208 1.78454 1.19309 0.450448 1.78454 0.518012 
1.70566 1.30094 0.431913 1.78584 -4.03435e-06 -0.492876 -0.492877 -0.679861 1.17934 
0.384106 -0.414272 0.890232 14.1118 0.519857 9.72917 -0.240815 1.23321 -0.901128 
1.35389 0.890232 0.904608 0.485435 -0.859197 -4.39238e-06 0.384152 0.890233 1.94228 
1.30141 -0.986264 -0.784936 2.60085 1.17986 0.450399 1.33254 1.33254 0.798148 
0.890232 -0.385409 0.868942 1.37541 2.9574 -0.385408 2.9574 2.01722 0.422363 
0.466505 0.51994 1.50497 0.51994 0.51994 1.23396 1.23398 -0.956861 -1.87032 
0.518006 1.14029 -0.492901 0.401743 0.357803 -1.26948 9.53676 -1.44419 0.357686 
1.62001 1.62001 1.13099 0.431856 1.76208 0.431856 1.76208 0.518012 1.78383 
0.431913 -0.454649 5.27612 1.35388 0.518326 1.78584 0.518326 -0.462153 1.78506 
1.76286 0.518271 0.518271 0.450399 -0.896758 0.384106 -0.0112091 1.17934 -0.617288 
9.72917 0.868942 -1.29276 2.70646 1.35452 0.384152 1.94128 0.384106 0.485435 
0.798303 1.35389 0.869669 0.518271 0.450399 -0.49325 8.51789 0.384106 42.8594 
8.48035 0.518005 -0.896963 0.450443 2.24884 2.24884 1.23398 -1.03316 1.23396 
-0.853076 0.987277 0.485312 0.627113 -2.13562 6.46421 1220.07 -1.16159 1.08287 
1.62001 0.48526 1.08285 0.518012 1.78454 0.987588 0.431913 0.401834 -0.923453 
0.518326 -3.88047e-06 1.78512 1.78512 1.35452 0.431913 0.431913 0.431914 0.518326 
-1.94487e-05 1.33182 1.76286 0.431855 0.987006 0.518271 -0.0113526 0.450399 0.450399 
0.384106 1.35452 0.798303 0.905035 1.30094 0.518326 0.401285 -0.493206 -0.493206 
2.70646 -0.414574 1.17986 1.34803 0.484723 0.485162 1.23397 0.52003 0.401613 
0.627007 0.51994 0.51994 -0.825608 1.70566 8.75809 1.08612 -0.700532 1.36408 
0.997774 1.14029 -0.0506596 -1.34594 0.466503 0.550799 0.51994 0.550799 0.51994 
2.24888 1.32326 1.505 1.505 4.49433 0.550799 3.38065 1.13098 1.08285 
-0.385492 0.484724 7.5483 0.450448 1.19309 0.431856 0.450448 1.76127 0.518012 
-0.800794 0.518326 0.518326 1.78584 0.431913 0.401834 0.431856 1.76286 0.431855 
1.76367 0.431855 1.33254 0.798148 2.663 -0.414272 0.384106 0.890233 1.33254 
1.37541 -0.814554 1.17934 1.1804 2.65694 1.94128 0.905035 0.905035 0.384106 
0.889751 1.35389 0.450399 0.450399 -0.653151 1.30141 1.17932 -0.385408 0.868942 
1.06996 -0.41427 7.55586 0.450443 0.431914 0.997771 0.485162 -0.935913 0.51994 
0.401746 0.550799 2.2512 0.627007 -0.771399 1.0365 1.70493 13.0069 2.25041 
-1.13069 -1.13109 8.75897 3.40541 0.51994 -0.78617 0.518073 -2.32791 1.23396 
0.518006 -0.543163 0.627113 0.997774 0.357803 0.998006 1.69208 -0.918786 -0.849569 
1.08612 -1.08703 0.550897 0.520043 0.383961 2.24968 1.21646 4.49591 1.69208 
1.19262 1.19357 0.450448 1.19262 0.431856 1.76127 1.76289 0.450448 0.431856 
0.987175 0.431856 1.69349 1.78657 6.90706 1.35388 -0.414574 0.431914 1.78512 
1.35388 5.2774 5.27485 0.518271 -0.414574 8.51503 1.76205 0.798148 0.889751 
1.17879 0.797708 0.890714 0.450399 1.17879 0.889752 0.384152 1.30094 -0.798836 
1.94137 0.518326 1.30141 0.998343 1.30141 0.485435 1.30141 0.485435 0.518271 
1.33182 0.798148 0.890714 1.17932 1.17932 1.34797 2.01714 0.997249 0.450443 
1.19424 3.56782 0.357686 1.69348 0.401613 0.401745 0.485314 0.431979 0.401744 
2.16019 0.518073 0.51994 13.0116 2.24804 0.627007 2.2512 0.51994 1.14075 
0.431978 2.24809 0.755721 2.24809 1.36527 -2.12313 0.987033 1.03615 -0.650972 
-0.614978 0.518073 -0.614978 -0.614978 0.51994 0.987276 0.51994 -0.614978 0.357803 
0.51994 0.51994 0.51994 0.987276 0.401743 0.422616 1.13099 -0.614978 0.550897 
-0.614978 0.431928 0.357803 1.19417 0.518012 1.36408 -0.645252 1.70636 0.520043 
0.518012 0.627007 -0.00792674 0.357687 3.38065 0.485261 0.357763 1.08287 0.450448 
7.54831 0.431856 1.76127 0.431856 1.76289 0.450448 1.19357 0.431856 0.450448 
1.19357 0.450448 1.19262 1.76127 0.431856 0.518012 1.6178 0.485162 0.431914 
1.35516 0.431914 1.78657 0.431913 0.431914 0.431914 1.78579 -0.680129 1.33327 
-0.49325 0.384106 0.450399 1.17879 2.70518 0.518326 5.27485 0.484775 1.35516 
0.432179 0.890714 0.384152 2.70518 0.890714 1.30141 1.17932 1.30141 -0.797904 
1.33327 1.1804 0.384106 0.450399 0.357363 0.422363 0.422364 5409.31 12.9177 
0.797862 0.797862 1.78512 0.357685 -1.63265 6.91193 1.70493 6.46524 0.431979 
-0.684912 2.24961 -0.41433 0.518073 0.383961 0.0210946 1.54951 -0.684912 0.485311 
0.987278 -0.519208 -0.511635 0.550799 0.357803 1.50553 1.42008 1.13982 -0.511635 
0.485164 0.401744 0.51994 0.987276 0.958591 -1.74051 0.518073 6.46526 1.13935 
-0.644409 0.518012 0.431928 1.78383 1.13935 0.431856 0.450448 0.450448 0.431856 
-0.470738 1.19262 1.76289 0.431914 1.78512 2.24809 8.75496 4.31784 1.44511 
5.27485 1.50553 0.518326 0.431914 1.78434 0.431856 1.76205 -0.896571 0 
0.384106 0.889752 0.384106 1.30141 1.35516 0.518326 1.35388 -0.94194 0.384152 
-2.93998 -0.653271 0.485436 0.755877 0.905746 -0.41427 0.450399 2.52553e-14 0.450399 
0.357363 0.357363 1.07007 2.01714 2.01731 -0.679541 -0.414271 0.485162 0.485162 
0.485162 -0.594596 0.485162 1.69349 1.03522 1.78629 0.518005 1.78774 1.19372 
2.24963 6.90903 -1.96137 0.357805 0.431979 1.54811 1.13935 1.70496 0.518073 
0.518073 10.6858 1.70496 0.431979 0.401743 0.518073 1.54948 1.70496 0.550799 
1.54951 0.431979 0.485163 1.03615 0.550799 -1.12928 0.627007 -0.650972 0.550903 
0.466425 -1.40179 1.14028 0.997898 0.431928 1.0365 8.7621 0.450448 1.78383 
0.383961 0.450448 1.19262 3.56276 1.78501 0.431856 1.76289 1.19262 0.450448 
1.19357 0.431856 0.431856 1.78383 -0.771398 0.431914 -0.569175 2.25125 2.16344 
1.44617 0.466503 5.31201e-14 0.401834 5.31201e-14 0.383903 -4.21539 5.27483 0.431914 
0.431913 1.78657 0.518326 1.35516 1.78434 1.35388 1.78434 1.78579 0.987587 
-0.462154 0.431914 -0.896569 -0.492877 1.76205 0.431856 3.52241 0.431856 0.450399 
1.35388 0.450399 0.518326 0.401285 0.384152 2.70518 0.798303 10.5811 0.357896 
3.65042 0.485434 1.30141 1.17932 0.890714 0.450399 1.34797 1.06996 1.34797 
1.34809 -0.67949 0.484722 0.484722 2.01713 -1.0878 1.06996 8.48034 0.755496 
0.401745 1.1323 0.485313 1.69262 1.13231 1.54811 6.46002 0.422618 1.54808 
0.00504018 1.54808 0.401745 6.46278 0.401743 -0.778743 0.431979 3.25813 0.357803 
9.52286 1.7053 0.431978 1.03617 0.357803 0.485313 0.401743 0.518073 1.03648 
0.401743 0.431978 0.998006 -0.984453 0.383961 0.401743 0.383961 -0.461915 0.431928 
1.70636 0.401744 0.383961 1.14028 0.860802 0.869049 0.357762 1.0365 -0.935934 
6.75708 6.46526 0.755497 -0.896905 0.450448 0.431856 1.19357 1.19262 1.19262 
1.19357 1.19357 0.450448 0.450448 1.76289 1.76127 0.485163 0.627007 2.24966 
2.24968 2.25244 0.627113 -1.03453 1.44617 2.25244 1.14135 -0.860277 2.25078 
0.401834 0.518006 -0.923452 1.78473 0.518326 0.520028 4843.97 2.16344 13.1907 
1.78512 0.431914 1.78579 0.431914 -0.414574 0.431914 1.76367 0.431855 1.76367 
0.431855 -0.492877 -1.43627 -1.08883 0.518271 1.17879 0.890714 0.904608 1.30093 
0.384152 0.384106 0.0114777 -2.93998 1.94245 0.485434 1.30141 7.85685 2.65785 
0.450741 0.450399 1.1804 -0.493249 -1.11052 0.422363 0.401242 0.401242 1.60028 
0.987007 0.384106 2.66444 0.384106 2.66444 0.798147 0.422364 5409.62 0.484724 
42.8593 0.860686 0.485162 1.1323 1.54884 1.13231 -0.594797 0.422616 0.485314 
-0.775997 1.70636 6.46283 0.422617 0.518073 0.422615 0.998006 1.70636 0.518073 
0.357803 1.54948 0.987276 0.485261 3.09758 0.357803 1.03615 0.422616 1.70496 
0.450505 0.485311 0.431979 1.14075 0.485261 1.13982 0.422615 0.987276 0.383961 
6.46526 1.70391 0.869048 9489.7 -0.778909 3.38065 0.485164 1.69209 0.357763 